<?xml version="1.0"?>
<VTKFile type="UnstructuredGrid" version="0.1" byte_order="BigEndian">
<UnstructuredGrid GhostLevel="0">
<Piece NumberOfPoints="10614" NumberOfCells="5062" ><Points>
<DataArray type="Float32" NumberOfComponents="3" format="ascii">
1.51675e+006	5.03362e+006	1	1.51677e+006	5.03353e+006	1	1.51684e+006	5.03365e+006	1	1.51687e+006	5.03355e+006	1	1.51675e+006	5.03362e+006	0	1.51677e+006	5.03353e+006	0	1.51684e+006	5.03365e+006	0	1.51687e+006	5.03355e+006	0	1.51694e+006	5.03367e+006	1	1.51697e+006	5.03358e+006	1	1.51694e+006	5.03367e+006	0	1.51697e+006	5.03358e+006	0	1.51704e+006	5.0337e+006	1	1.51706e+006	5.0336e+006	1	1.51704e+006	5.0337e+006	0	1.51706e+006	5.0336e+006	0	1.51714e+006	5.03372e+006	1	1.51716e+006	5.03362e+006	1	1.51714e+006	5.03372e+006	0	1.51716e+006	5.03362e+006	0	1.51723e+006	5.03375e+006	1	1.51726e+006	5.03365e+006	1	1.51723e+006	5.03375e+006	0	1.51726e+006	5.03365e+006	0	1.51733e+006	5.03377e+006	1	1.51735e+006	5.03367e+006	1	1.51733e+006	5.03377e+006	0	1.51735e+006	5.03367e+006	0	1.51743e+006	5.03379e+006	1	1.51745e+006	5.0337e+006	1	1.51743e+006	5.03379e+006	0	1.51745e+006	5.0337e+006	0	1.51752e+006	5.03382e+006	1	1.51755e+006	5.03372e+006	1	1.51752e+006	5.03382e+006	0	1.51755e+006	5.03372e+006	0	1.51762e+006	5.03384e+006	1	1.51764e+006	5.03375e+006	1	1.51762e+006	5.03384e+006	0	1.51764e+006	5.03375e+006	0	1.51772e+006	5.03387e+006	1	1.51774e+006	5.03377e+006	1	1.51772e+006	5.03387e+006	0	1.51774e+006	5.03377e+006	0	1.51781e+006	5.03389e+006	1	1.51784e+006	5.03379e+006	1	1.51781e+006	5.03389e+006	0	1.51784e+006	5.03379e+006	0	1.51791e+006	5.03391e+006	1	1.51794e+006	5.03382e+006	1	1.51791e+006	5.03391e+006	0	1.51794e+006	5.03382e+006	0	1.51801e+006	5.03394e+006	1	1.51803e+006	5.03384e+006	1	1.51801e+006	5.03394e+006	0	1.51803e+006	5.03384e+006	0	1.51811e+006	5.03396e+006	1	1.51813e+006	5.03387e+006	1	1.51811e+006	5.03396e+006	0	1.51813e+006	5.03387e+006	0	1.5182e+006	5.03399e+006	1	1.51823e+006	5.03389e+006	1	1.5182e+006	5.03399e+006	0	1.51823e+006	5.03389e+006	0	1.5183e+006	5.03401e+006	1	1.51832e+006	5.03391e+006	1	1.5183e+006	5.03401e+006	0	1.51832e+006	5.03391e+006	0	1.5184e+006	5.03404e+006	1	1.51842e+006	5.03394e+006	1	1.5184e+006	5.03404e+006	0	1.51842e+006	5.03394e+006	0	1.51849e+006	5.03406e+006	1	1.51852e+006	5.03396e+006	1	1.51849e+006	5.03406e+006	0	1.51852e+006	5.03396e+006	0	1.51859e+006	5.03408e+006	1	1.51861e+006	5.03399e+006	1	1.51859e+006	5.03408e+006	0	1.51861e+006	5.03399e+006	0	1.51869e+006	5.03411e+006	1	1.51871e+006	5.03401e+006	1	1.51869e+006	5.03411e+006	0	1.51871e+006	5.03401e+006	0	1.51878e+006	5.03413e+006	1	1.51881e+006	5.03404e+006	1	1.51878e+006	5.03413e+006	0	1.51881e+006	5.03404e+006	0	1.51888e+006	5.03416e+006	1	1.51891e+006	5.03406e+006	1	1.51888e+006	5.03416e+006	0	1.51891e+006	5.03406e+006	0	1.51898e+006	5.03418e+006	1	1.519e+006	5.03408e+006	1	1.51898e+006	5.03418e+006	0	1.519e+006	5.03408e+006	0	1.51908e+006	5.03421e+006	1	1.5191e+006	5.03411e+006	1	1.51908e+006	5.03421e+006	0	1.5191e+006	5.03411e+006	0	1.51917e+006	5.03423e+006	1	1.5192e+006	5.03413e+006	1	1.51917e+006	5.03423e+006	0	1.5192e+006	5.03413e+006	0	1.51927e+006	5.03425e+006	1	1.51929e+006	5.03416e+006	1	1.51927e+006	5.03425e+006	0	1.51929e+006	5.03416e+006	0	1.51937e+006	5.03428e+006	1	1.51939e+006	5.03418e+006	1	1.51937e+006	5.03428e+006	0	1.51939e+006	5.03418e+006	0	1.51946e+006	5.0343e+006	1	1.51949e+006	5.0342e+006	1	1.51946e+006	5.0343e+006	0	1.51949e+006	5.0342e+006	0	1.51956e+006	5.03433e+006	1	1.51959e+006	5.03423e+006	1	1.51956e+006	5.03433e+006	0	1.51959e+006	5.03423e+006	0	1.51966e+006	5.03435e+006	1	1.51968e+006	5.03425e+006	1	1.51966e+006	5.03435e+006	0	1.51968e+006	5.03425e+006	0	1.51976e+006	5.03437e+006	1	1.51978e+006	5.03428e+006	1	1.51976e+006	5.03437e+006	0	1.51978e+006	5.03428e+006	0	1.51985e+006	5.0344e+006	1	1.51988e+006	5.0343e+006	1	1.51995e+006	5.03442e+006	1	1.51997e+006	5.03433e+006	1	1.51985e+006	5.0344e+006	0	1.51988e+006	5.0343e+006	0	1.51995e+006	5.03442e+006	0	1.51997e+006	5.03433e+006	0	1.52005e+006	5.03445e+006	1	1.52007e+006	5.03435e+006	1	1.52005e+006	5.03445e+006	0	1.52007e+006	5.03435e+006	0	1.52014e+006	5.03447e+006	1	1.52017e+006	5.03437e+006	1	1.52014e+006	5.03447e+006	0	1.52017e+006	5.03437e+006	0	1.52024e+006	5.0345e+006	1	1.52026e+006	5.0344e+006	1	1.52024e+006	5.0345e+006	0	1.52026e+006	5.0344e+006	0	1.52034e+006	5.03452e+006	1	1.52036e+006	5.03442e+006	1	1.52034e+006	5.03452e+006	0	1.52036e+006	5.03442e+006	0	1.52043e+006	5.03454e+006	1	1.52046e+006	5.03445e+006	1	1.52043e+006	5.03454e+006	0	1.52046e+006	5.03445e+006	0	1.52053e+006	5.03457e+006	1	1.52056e+006	5.03447e+006	1	1.52053e+006	5.03457e+006	0	1.52056e+006	5.03447e+006	0	1.52063e+006	5.03459e+006	1	1.52065e+006	5.0345e+006	1	1.52063e+006	5.03459e+006	0	1.52065e+006	5.0345e+006	0	1.52073e+006	5.03462e+006	1	1.52075e+006	5.03452e+006	1	1.52073e+006	5.03462e+006	0	1.52075e+006	5.03452e+006	0	1.52082e+006	5.03464e+006	1	1.52085e+006	5.03454e+006	1	1.52082e+006	5.03464e+006	0	1.52085e+006	5.03454e+006	0	1.5168e+006	5.03343e+006	1	1.51689e+006	5.03345e+006	1	1.5168e+006	5.03343e+006	0	1.51689e+006	5.03345e+006	0	1.51699e+006	5.03348e+006	1	1.51699e+006	5.03348e+006	0	1.51709e+006	5.0335e+006	1	1.51709e+006	5.0335e+006	0	1.51718e+006	5.03353e+006	1	1.51718e+006	5.03353e+006	0	1.51728e+006	5.03355e+006	1	1.51728e+006	5.03355e+006	0	1.51738e+006	5.03358e+006	1	1.51738e+006	5.03358e+006	0	1.51747e+006	5.0336e+006	1	1.51747e+006	5.0336e+006	0	1.51757e+006	5.03362e+006	1	1.51757e+006	5.03362e+006	0	1.51767e+006	5.03365e+006	1	1.51767e+006	5.03365e+006	0	1.51777e+006	5.03367e+006	1	1.51777e+006	5.03367e+006	0	1.51786e+006	5.0337e+006	1	1.51786e+006	5.0337e+006	0	1.51796e+006	5.03372e+006	1	1.51796e+006	5.03372e+006	0	1.51806e+006	5.03374e+006	1	1.51806e+006	5.03374e+006	0	1.51815e+006	5.03377e+006	1	1.51815e+006	5.03377e+006	0	1.51825e+006	5.03379e+006	1	1.51825e+006	5.03379e+006	0	1.51835e+006	5.03382e+006	1	1.51835e+006	5.03382e+006	0	1.51844e+006	5.03384e+006	1	1.51844e+006	5.03384e+006	0	1.51854e+006	5.03387e+006	1	1.51854e+006	5.03387e+006	0	1.51864e+006	5.03389e+006	1	1.51864e+006	5.03389e+006	0	1.51874e+006	5.03391e+006	1	1.51874e+006	5.03391e+006	0	1.51883e+006	5.03394e+006	1	1.51883e+006	5.03394e+006	0	1.51893e+006	5.03396e+006	1	1.51893e+006	5.03396e+006	0	1.51903e+006	5.03399e+006	1	1.51903e+006	5.03399e+006	0	1.51912e+006	5.03401e+006	1	1.51912e+006	5.03401e+006	0	1.51922e+006	5.03404e+006	1	1.51922e+006	5.03404e+006	0	1.51932e+006	5.03406e+006	1	1.51932e+006	5.03406e+006	0	1.51942e+006	5.03408e+006	1	1.51942e+006	5.03408e+006	0	1.51951e+006	5.03411e+006	1	1.51951e+006	5.03411e+006	0	1.51961e+006	5.03413e+006	1	1.51961e+006	5.03413e+006	0	1.51971e+006	5.03416e+006	1	1.51971e+006	5.03416e+006	0	1.5198e+006	5.03418e+006	1	1.5198e+006	5.03418e+006	0	1.5199e+006	5.0342e+006	1	1.52e+006	5.03423e+006	1	1.5199e+006	5.0342e+006	0	1.52e+006	5.03423e+006	0	1.52009e+006	5.03425e+006	1	1.52009e+006	5.03425e+006	0	1.52019e+006	5.03428e+006	1	1.52019e+006	5.03428e+006	0	1.52029e+006	5.0343e+006	1	1.52029e+006	5.0343e+006	0	1.52039e+006	5.03433e+006	1	1.52039e+006	5.03433e+006	0	1.52048e+006	5.03435e+006	1	1.52048e+006	5.03435e+006	0	1.52058e+006	5.03437e+006	1	1.52058e+006	5.03437e+006	0	1.52068e+006	5.0344e+006	1	1.52068e+006	5.0344e+006	0	1.52077e+006	5.03442e+006	1	1.52077e+006	5.03442e+006	0	1.52087e+006	5.03445e+006	1	1.52087e+006	5.03445e+006	0	1.51682e+006	5.03333e+006	1	1.51692e+006	5.03336e+006	1	1.51682e+006	5.03333e+006	0	1.51692e+006	5.03336e+006	0	1.51701e+006	5.03338e+006	1	1.51701e+006	5.03338e+006	0	1.51711e+006	5.03341e+006	1	1.51711e+006	5.03341e+006	0	1.51721e+006	5.03343e+006	1	1.51721e+006	5.03343e+006	0	1.5173e+006	5.03345e+006	1	1.5173e+006	5.03345e+006	0	1.5174e+006	5.03348e+006	1	1.5174e+006	5.03348e+006	0	1.5175e+006	5.0335e+006	1	1.5175e+006	5.0335e+006	0	1.5176e+006	5.03353e+006	1	1.5176e+006	5.03353e+006	0	1.51769e+006	5.03355e+006	1	1.51769e+006	5.03355e+006	0	1.51779e+006	5.03358e+006	1	1.51779e+006	5.03358e+006	0	1.51789e+006	5.0336e+006	1	1.51789e+006	5.0336e+006	0	1.51798e+006	5.03362e+006	1	1.51798e+006	5.03362e+006	0	1.51808e+006	5.03365e+006	1	1.51808e+006	5.03365e+006	0	1.51818e+006	5.03367e+006	1	1.51818e+006	5.03367e+006	0	1.51828e+006	5.0337e+006	1	1.51828e+006	5.0337e+006	0	1.51837e+006	5.03372e+006	1	1.51837e+006	5.03372e+006	0	1.51847e+006	5.03374e+006	1	1.51847e+006	5.03374e+006	0	1.51857e+006	5.03377e+006	1	1.51857e+006	5.03377e+006	0	1.51866e+006	5.03379e+006	1	1.51866e+006	5.03379e+006	0	1.51876e+006	5.03382e+006	1	1.51876e+006	5.03382e+006	0	1.51886e+006	5.03384e+006	1	1.51886e+006	5.03384e+006	0	1.51895e+006	5.03387e+006	1	1.51895e+006	5.03387e+006	0	1.51905e+006	5.03389e+006	1	1.51905e+006	5.03389e+006	0	1.51915e+006	5.03391e+006	1	1.51915e+006	5.03391e+006	0	1.51925e+006	5.03394e+006	1	1.51925e+006	5.03394e+006	0	1.51934e+006	5.03396e+006	1	1.51934e+006	5.03396e+006	0	1.51944e+006	5.03399e+006	1	1.51944e+006	5.03399e+006	0	1.51954e+006	5.03401e+006	1	1.51954e+006	5.03401e+006	0	1.51963e+006	5.03403e+006	1	1.51963e+006	5.03403e+006	0	1.51973e+006	5.03406e+006	1	1.51973e+006	5.03406e+006	0	1.51983e+006	5.03408e+006	1	1.51983e+006	5.03408e+006	0	1.51992e+006	5.03411e+006	1	1.52002e+006	5.03413e+006	1	1.51992e+006	5.03411e+006	0	1.52002e+006	5.03413e+006	0	1.52012e+006	5.03416e+006	1	1.52012e+006	5.03416e+006	0	1.52022e+006	5.03418e+006	1	1.52022e+006	5.03418e+006	0	1.52031e+006	5.0342e+006	1	1.52031e+006	5.0342e+006	0	1.52041e+006	5.03423e+006	1	1.52041e+006	5.03423e+006	0	1.52051e+006	5.03425e+006	1	1.52051e+006	5.03425e+006	0	1.5206e+006	5.03428e+006	1	1.5206e+006	5.03428e+006	0	1.5207e+006	5.0343e+006	1	1.5207e+006	5.0343e+006	0	1.5208e+006	5.03433e+006	1	1.5208e+006	5.03433e+006	0	1.52089e+006	5.03435e+006	1	1.52089e+006	5.03435e+006	0	1.51684e+006	5.03324e+006	1	1.51694e+006	5.03326e+006	1	1.51684e+006	5.03324e+006	0	1.51694e+006	5.03326e+006	0	1.51704e+006	5.03328e+006	1	1.51704e+006	5.03328e+006	0	1.51713e+006	5.03331e+006	1	1
[...]
<CellData Scalars="scalars">
<DataArray type="Int32" Name="nodeid" format="ascii">2	3	4	5	6	7	8	9	10	11	12	13	14	15	16	17	18	19	20	21	22	23	24	25	26	27	28	29	30	31	32	2254	2253	34	35	36	37	38	39	40	41	42	43	47	48	49	50	51	52	53	54	55	56	57	58	59	60	61	62	63	64	65	66	67	68	69	70	71	72	73	74	75	76	77	2255	2256	2258	2257	79	80	81	82	83	84	85	86	87	88	92	93	94	95	96	97	98	99	100	101	102	103	104	105	106	107	108	109	110	111	112	113	114	115	116	117	118	119	120	121	122	2259	2260	2262	2261	124	125	126	127	128	129	130	131	132	133	137	138	139	140	141	142	143	144	145	146	147	148	149	150	151	152	153	154	155	156	157	158	159	160	161	162	163	164	165	166	167	2263	2264	2266	2265	169	170	171	172	173	174	175	176	177	178	182	183	184	185	186	187	188	189	190	191	192	193	194	195	196	197	198	199	200	201	202	203	204	205	206	207	208	209	210	211	212	2267	2268	2270	2269	214	215	216	217	218	219	220	221	222	223	227	228	229	230	231	232	233	234	235	236	237	238	239	240	241	242	243	244	245	246	247	248	249	250	251	252	253	254	255	256	257	2271	2272	2274	2273	2275	2276	2278	2277	260	261	262	263	264	265	266	267	268	272	273	274	275	276	277	278	279	280	281	282	283	284	285	286	287	288	289	290	291	292	293	294	295	296	297	298	299	300	301	302	303	2279	2280	2282	2281	2283	2284	2286	2285	306	307	308	309	310	311	312	313	317	318	319	320	321	322	323	324	325	326	327	328	329	330	331	332	333	334	335	336	337	338	339	340	341	342	343	344	345	346	347	348	349	2287	2288	2290	2289	351	352	353	354	355	356	357	358	362	363	364	365	366	367	368	369	370	371	372	373	374	375	376	377	378	379	380	381	382	383	384	385	386	387	388	389	390	391	392	393	394	2291	2292	2294	2293	396	397	398	399	400	401	402	403	407	408	409	410	411	412	413	414	415	416	417	418	419	420	421	422	423	424	425	426	427	428	429	430	431	432	433	434	435	436	437	438	439	2295	2296	2298	2297	441	442	443	444	445	446	447	448	452	453	454	455	456	457	458	459	460	461	462	463	464	465	466	467	468	469	470	471	472	473	474	475	476	477	478	479	480	481	482	483	484	2299	2300	2302	2301	486	487	488	489	490	491	492	493	497	498	499	500	501	502	503	504	505	506	507	508	509	510	511	512	513	514	515	516	517	518	519	520	521	522	523	524	525	526	527	528	529	2303	2304	2306	2305	2307	2308	2310	2309	532	533	534	535	536	537	538	542	543	544	545	546	547	548	549	550	551	552	553	554	555	556	557	558	559	560	561	562	563	564	565	566	567	568	569	570	571	572	573	574	575	2311	2312	2314	2313	577	578	579	580	581	582	583	587	588	589	590	591	592	593	594	595	596	597	598	599	600	601	602	603	604	605	606	607	608	609	610	611	2315	2316	2318	2317	2319	2320	2322	2321	2323	2324	2326	2325	2327	2328	2330	2329	2331	2332	2334	2333	2335	2336	2338	2337	2339	2340	2342	2341	2343	2344	2346	2345	2347	2348	2350	2349	2351	2352	2354	2353	2355	2356	2358	2357	2359	2360	2362	2361	2363	2364	2366	2365	2367	2368	2370	2369	626	627	628	632	633	634	635	636	637	638	639	640	641	642	643	644	645	646	647	648	649	650	651	652	653	654	655	2371	2372	2374	2373	2375	2376	2378	2377	2379	2380	2382	2381	2383	2384	2386	2385	2387	2388	2390	2389	2391	2392	2394	2393	2395	2396	2398	2397	2399	2400	2402	2401	2403	2404	2406	2405	2407	2408	2410	2409	2411	2412	2414	2413	2415	2416	2418	2417	2419	2420	2422	2421	2423	2424	2426	2425	2427	2428	2430	2429	671	672	673	677	678	679	680	681	682	683	684	685	686	687	688	689	690	691	692	693	694	695	696	697	698	699	2431	2432	2434	2433	2435	2436	2438	2437	2439	2440	2442	2441	2443	2444	2446	2445	2447	2448	2450	2449	2451	2452	2454	2453	2455	2456	2458	2457	2459	2460	2462	2461	2463	2464	2466	2465	2467	2468	2470	2469	2471	2472	2474	2473	2475	2476	2478	2477	2479	2480	2482	2481	2483	2484	2486	2485	2487	2488	2490	2489	2491	2492	2494	2493	2495	2496	2498	2497	717	718	722	723	724	725	726	727	728	729	730	731	732	733	734	735	736	737	738	739	740	741	742	743	2499	2500	2502	2501	2503	2504	2506	2505	2507	2508	2510	2509	2511	2512	2514	2513	2515	2516	2518	2517	2519	2520	2522	2521	2523	2524	2526	2525	2527	2528	2530	2529	2531	2532	2534	2533	2535	2536	2538	2537	2539	2540	2542	2541	2543	2544	2546	2545	2547	2548	2550	2549	2551	2552	2554	2553	2555	2556	2558	2557	2559	2560	2562	2561	2563	2564	2566	2565	2567	2568	2570	2569	762	763	767	768	769	770	771	772	773	774	775	776	777	778	779	780	781	782	783	784	785	786	2571	2572	2574	2573	2575	2576	2578	2577	2579	2580	2582	2581	2583	2584	2586	2585	2587	2588	2590	2589	2591	2592	2595	2596	2598	2597	2593	2599	2600	2607	2608	2610	2609	2603	2604	2606	2605	2615	2616	2618	2617	2619	2620	2622	2621	2627	2628	2630	2629	2623	2624	2626	2625	2635	2636	2638	2637	2639	2640	2642	2641	2647	2648	2650	2649	2643	2644	2646	2645	2655	2656	2658	2657	2659	2660	2662	2661	2667	2668	2670	2669	2663	2664	2666	2665	2675	2676	2678	2677	2672	2683	2684	2686	2685	2679	2680	2682	2681	2687	2688	2690	2691	2692	2694	2693	2695	2696	2698	2697	2699	2700	2702	2701	2703	2704	2706	2705	2707	2708	2710	2709	2711	2712	2714	2713	2715	2716	2718	2717	2719	2720	2722	2721	2723	2724	2726	2725	807	808	812	813	814	815	816	817	818	819	820	821	822	823	824	825	826	827	828	829	2727	2728	2730	2729	2731	2732	2734	2733	2735	2736	2738	2737	2739	2740	2742	2741	2743	2744	2746	2745	2747	2748	2750	2749	2751	2752	2759	2760	2762	2761	2755	2756	2758	2757	2767	2768	2770	2769	2771	2772	2774	2773	2779	2780	2782	2781	2775	2776	2778	2777	2787	2788	2790	2789	2791	2792	2794	2793	2799	2800	2802	2801	2795	2796	2798	2797	2807	2808	2810	2809	2811	2812	2814	2813	2819	2820	2822	2821	2815	2816	2818	2817	2827	2828	2830	2829	2831	2832	2834	2833	2839	2840	2842	2841	2835	2836	2838	2837	2847	2848	2850	2849	2851	2852	2854	2853	2859	2860	2862	2861	2855	2856	2858	2857	2867	2868	2870	2869	2871	2872	2874	2873	2879	2880	2882	2881	2875	2876	2878	2877	2887	2888	2890	2889	2884	2886	2891	2892	2894	2893	2895	2896	2898	2897	2899	2900	2902	2901	2903	2904	2906	2905	2907	2908	2910	2909	2911	2912	2914	2913	2915	2916	2918	2917	2919	2920	2922	2921	2923	2924	2926	2925	852	853	857	858	859	860	861	862	863	864	865	866	867	868	869	870	871	872	2927	2928	2930	2929	2931	2932	2934	2933	2935	2936	2938	2937	2939	2940	2942	2941	2943	2944	2946	2945	2947	2948	2950	2949	2951	2952	2954	2953	2955	2959	2960	2962	2961	2967	2968	2970	2969	2963	2964	2966	2965	2975	2976	2978	2977	2979	2980	2982	2981	2987	2988	2990	2989	2983	2984	2986	2985	2995	2996	2998	2997	2999	3000	3002	3001	3007	3008	3010	3009	3003	3004	3006	3005	3015	3016	3018	3017	3019	3020	3022	3021	3027	3028	3030	3029	3023	3024	3026	3025	3035	3036	3038	3037	3039	3040	3042	3041	3047	3048	3050	3049	3043	3044	3046	3045	3055	3056	3058	3057	3059	3060	3062	3061	3067	3068	3070	3069	3063	3064	3066	3065	3075	3076	3078	3077	3079	3080	3082	3081	3087	3088	3090	3089	3083	3084	3086	3085	3095	3096	3098	3097	3099	3100	3102	3101	3107	3108	3110	3109	3103	3104	3106	3105	3115	3116	3118	3117	3112	3114	3119	3120	3122	3121	3123	3124	3126	3125	3127	3128	3130	3129	3131	3132	3134	3133	3135	3136	3138	3137	3139	3140	3142	3141	3143	3144	3146	3145	3147	3148	3150	3149	3151	3152	3154	3153	897	898	902	903	904	905	906	907	908	909	910	911	912	913	914	915	916	3155	3156	3158	3157	3159	3160	3162	3161	3163	3164	3166	3165	3167	3168	3170	3169	3171	3172	3174	3173	3175	3176	3178	3177	3179	3180	3187	3188	3190	3189	3183	3184	3186	3185	3191	3195	3196	3198	3197	3203	3204	3206	3205	3199	3200	3202	3201	3211	3212	3214	3213	3215	3216	3218	3217	3223	3224	3226	3225	3219	3220	3222	3221	3231	3232	3234	3233	3235	3236	3238	3237	3243	3244	3246	3245	3239	3240	3242	3241	3251	3252	3254	3253	3255	3256	3258	3257	3263	3264	3266	3265	3259	3260	3262	3261	3271	3272	3274	3273	3275	3276	3278	3277	3283	3284	3286	3285	3279	3280	3282	3281	3291	3292	3294	3293	3295	3296	3298	3297	3303	3304	3306	3305	3299	3300	3302	3301	3311	3312	3314	3313	3315	3316	3318	3317	3323	3324	3326	3325	3319	3320	3322	3321	3331	3332	3334	3333	3335	3336	3338	3337	3343	3344	3346	3345	3339	3340	3342	3341	3351	3352	3354	3353	3355	3356	3358	3357	3363	3364	3366	3365	3359	3360	3362	3361	3371	3372	3374	3373	3368	3370	3375	3376	3378	3377	3379	3380	3382	3381	3383	3384	3386	3385	3387	3388	3390	3389	3391	3392	3394	3393	3395	3396	3398	3397	3399	3400	3402	3401	3403	3404	3406	3405	941	942	943	947	948	949	950	951	952	953	954	955	956	957	958	959	960	3407	3408	3410	3409	3411	3412	3414	3413	3415	3416	3418	3417	3419	3420	3422	3421	3423	3424	3427	3428	3430	3429	3425	3431	3435	3436	3438	3437	3443	3444	3446	3445	3439	3440	3442	3441	3451	3452	3454	3453	3455	3456	3458	3457	3463	3464	3466	3465	3459	3460	3462	3461	3471	3472	3474	3473	3475	3476	3478	3477	3483	3484	3486	3485	3479	3480	3482	3481	3491	3492	3494	3493	3495	3496	3498	3497	3503	3504	3506	3505	3499	3500	3502	3501	3511	3512	3514	3513	3515	3516	3518	3517	3523	3524	3526	3525	3519	3520	3522	3521	3531	3532	3534	3533	3535	3536	3538	3537	3543	3544	3546	3545	3539	3540	3542	3541	3551	3552	3554	3553	3555	3556	3558	3557	3563	3564	3566	3565	3559	3560	3562	3561	3571	3572	3574	3573	3575	3576	3578	3577	3583	3584	3586	3585	3579	3580	3582	3581	3591	3592	3594	3593	3595	3596	3598	3597	3603	3604	3606	3605	3599	3600	3602	3601	3611	3612	3614	3613	3615	3616	3618	3617	3623	3624	3626	3625	3619	3620	3622	3621	3631	3632	3634	3633	3635	3636	3638	3637	3643	3644	3646	3645	3639	3640	3642	3641	3651	3652	3654	3653	3655	3656	3658	3657	3663	3664	3666	3665	3659	3660	3662	3661	3671	3672	3674	3673	3668	3670	3675	3676	3678	3677	3679	3680	3682	3681	3683	3684	3686	3685	3687	3688	3690	3689	3691	3692	3694	3693	3695	3696	3698	3697	3699	3700	3702	3701	3703	3704	3706	3705	986	987	988	992	993	994	995	996	997	998	999	1000	1001	1002	1003	1004	3707	3708	3710	3709	3711	3712	3714	3713	3715	3716	3718	3717	3719	3720	3722	3721	3723	3724	3726	3725	3727	3731	3732	3734	3733	3739	3740	3742	3741	3735	3736	3738	3737	3747	3748	3750	3749	3751	3752	3754	3753	3759	3760	3762	3761	3755	3756	3758	3757	3767	3768	3770	3769	3771	3772	3774	3773	3779	3780	3782	3781	3775	3776	3778	3777	3787	3788	3790	3789	3791	3792	3794	3793	3799	3800	3802	3801	3795	3796	3798	3797	3807	3808	3810	3809	3811	3812	3814	3813	3819	3820	3822	3821	3815	3816	3818	3817	3827	3828	3830	3829	3831	3832	3834	3833	3839	3840	3842	3841	3835	3836	3838	3837	3847	3848	3850	3849	3851	3852	3854	3853	3859	3860	3862	3861	3855	3856	3858	3857	3867	3868	3870	3869	3871	3872	3874	3873	3879	3880	3882	3881	3875	3876	3878	3877	3887	3888	3890	3889	3891	3892	3894	3893	3899	3900	3902	3901	3895	3896	3898	3897	3907	3908	3910	3909	3911	3912	3914	3913	3919	3920	3922	3921	3915	3916	3918	3917	3927	3928	3930	3929	3931	3932	3934	3933	3939	3940	3942	3941	3935	3936	3938	3937	3947	3948	3950	3949	3951	3952	3954	3953	3959	3960	3962	3961	3955	3956	3958	3957	3967	3968	3970	3969	3971	3972	3974	3973	3979	3980	3982	3981	3975	3976	3978	3977	3983	3984	3986	3985	3987	3988	3990	3989	3991	3992	3994	3993	3995	3996	3998	3997	3999	4000	4002	4001	4003	4004	4006	4005	4007	4008	4010	4009	4011	4012	4014	4013	1031	1032	1033	1037	1038	1039	1040	1041	1042	1043	1044	1045	1046	1047	1048	4015	4016	4018	4017	4019	4020	4022	4021	4023	4024	4026	4025	4027	4028	4030	4029	4031	4032	4034	4033	4035	4036	4039	4040	4042	4041	4037	4047	4048	4050	4049	4051	4052	4054	4053	4059	4060	4062	4061	4055	4056	4058	4057	4067	4068	4070	4069	4071	4072	4074	4073	4079	4080	4082	4081	4075	4076	4078	4077	4087	4088	4090	4089	4091	4092	4094	4093	4099	4100	4102	4101	4095	4096	4098	4097	4107	4108	4110	4109	4111	4112	4114	4113	4119	4120	4122	4121	4115	4116	4118	4117	4127	4128	4130	4129	4131	4132	4134	4133	4139	4140	4142	4141	4135	4136	4138	4137	4147	4148	4150	4149	4151	4152	4154	4153	4159	4160	4162	4161	4155	4156	4158	4157	4167	4168	4170	4169	4171	4172	4174	4173	4179	4180	4182	4181	4175	4176	4178	4177	4187	4188	4190	4189	4191	4192	4194	4193	4199	4200	4202	4201	4195	4196	4198	4197	4207	4208	4210	4209	4211	4212	4214	4213	4219	4220	4222	4221	4215	4216	4218	4217	4227	4228	4230	4229	4231	4232	4234	4233	4239	4240	4242	4241	4235	4236	4238	4237	4247	4248	4250	4249	4251	4252	4254	4253	4259	4260	4262	4261	4255	4256	4258	4257	4267	4268	4270	4269	4271	4272	4274	4273	4279	4280	4282	4281	4275	4276	4278	4277	4287	4288	4290	4289	4291	4292	4294	4293	4286	4295	4296	4298	4297	4299	4300	4302	4301	4303	4304	4306	4305	4307	4308	4310	4309	4311	4312	4314	4313	4315	4316	4318	4317	4319	4320	4322	4321	1074	1075	1076	1077	1078	1082	1083	1084	1085	1086	1087	1088	1089	1090	1091	1092	1093	4323	4324	4326	4325	4327	4328	4330	4329	4331	4332	4334	4333	4335	4336	4338	4337	4339	4340	4342	4341	4343	4347	4348	4350	4349	4351	4352	4354	4353	4345	4359	4360	4362	4361	4363	4364	4366	4365	4371	4372	4374	4373	4367	4368	4370	4369	4379	4380	4382	4381	4383	4384	4386	4385	4391	4392	4394	4393	4387	4388	4390	4389	4399	4400	4402	4401	4403	4404	4406	4405	4411	4412	4414	4413	4407	4408	4410	4409	4419	4420	4422	4421	4423	4424	4426	4425	4431	4432	4434	4433	4427	4428	4430	4429	4439	4440	4442	4441	4443	4444	4446	4445	4451	4452	4454	4453	4447	4448	4450	4449	4459	4460	4462	4461	4463	4464	4466	4465	4471	4472	4474	4473	4467	4468	4470	4469	4479	4480	4482	4481	4483	4484	4486	4485	4491	4492	4494	4493	4487	4488	4490	4489	4499	4500	4502	4501	4503	4504	4506	4505	4511	4512	4514	4513	4507	4508	4510	4509	4519	4520	4522	4521	4523	4524	4526	4525	4531	4532	4534	4533	4527	4528	4530	4529	4539	4540	4542	4541	4543	4544	4546	4545	4551	4552	4554	4553	4547	4548	4550	4549	4559	4560	4562	4561	4563	4564	4566	4565	4571	4572	4574	4573	4567	4568	4570	4569	4579	4580	4582	4581	4583	4584	4586	4585	4591	4592	4594	4593	4587	4588	4590	4589	4599	4600	4602	4601	4596	4598	4603	4604	4606	4605	4607	4608	4610	4609	4611	4612	4614	4613	4615	4616	4618	4617	4619	4620	4622	4621	1117	4623	4624	4626	4625	1119	1120	1121	1122	1123	1127	1128	1129	1130	1131	1132	1133	1134	1135	1136	1137	4627	4628	4630	4629	4631	4632	4634	4633	4635	4636	4638	4637	4639	4640	4642	4641	4643	4644	4646	4645	4647	4648	4650	4649	4651	4655	4656	4658	4657	4654	4653	4663	4664	4666	4665	4667	4668	4670	4669	4675	4676	4678	4677	4671	4672	4674	4673	4683	4684	4686	4685	4687	4688	4690	4689	4695	4696	4698	4697	4691	4692	4694	4693	4703	4704	4706	4705	4707	4708	4710	4709	4715	4716	4718	4717	4711	4712	4714	4713	4723	4724	4726	4725	4727	4728	4730	4729	4735	4736	4738	4737	4731	4732	4734	4733	4743	4744	4746	4745	4747	4748	4750	4749	4755	4756	4758	4757	4751	4752	4754	4753	4763	4764	4766	4765	4767	4768	4770	4769	4775	4776	4778	4777	4771	4772	4774	4773	4783	4784	4786	4785	4787	4788	4790	4789	4795	4796	4798	4797	4791	4792	4794	4793	4803	4804	4806	4805	4807	4808	4810	4809	4815	4816	4818	4817	4811	4812	4814	4813	4823	4824	4826	4825	4827	4828	4830	4829	4835	4836	4838	4837	4831	4832	4834	4833	4843	4844	4846	4845	4847	4848	4850	4849	4855	4856	4858	4857	4851	4852	4854	4853	4863	4864	4866	4865	4867	4868	4870	4869	4875	4876	4878	4877	4871	4872	4874	4873	4883	4884	4886	4885	4887	4888	4890	4889	4895	4896	4898	4897	4891	4892	4894	4893	4899	4900	4902	4901	4903	4904	4906	4905	4907	4908	4910	4909	4911	4912	4914	4913	1161	1162	4915	4916	4918	4917	1164	1165	1166	1167	1168	1172	1173	1174	1175	1176	1177	1178	1179	1180	1181	1182	4919	4920	4922	4921	4923	4924	4926	4925	4927	4928	4930	4929	4931	4932	4934	4933	4935	4936	4938	4937	4939	4940	4942	4941	4943	4944	4946	4945	4951	4952	4954	4953	4955	4956	4958	4957	4959	4960	4962	4961	4949	4967	4968	4970	4969	4971	4972	4974	4973	4979	4980	4982	4981	4975	4976	4978	4977	4987	4988	4990	4989	4991	4992	4994	4993	4999	5000	5002	5001	4995	4996	4998	4997	5007	5008	5010	5009	5011	5012	5014	5013	5019	5020	5022	5021	5015	5016	5018	5017	5027	5028	5030	5029	5031	5032	5034	5033	5039	5040	5042	5041	5035	5036	5038	5037	5047	5048	5050	5049	5051	5052	5054	5053	5059	5060	5062	5061	5055	5056	5058	5057	5067	5068	5070	5069	5071	5072	5074	5073	5079	5080	5082	5081	5075	5076	5078	5077	5087	5088	5090	5089	5091	5092	5094	5093	5099	5100	5102	5101	5095	5096	5098	5097	5107	5108	5110	5109	5111	5112	5114	5113	5119	5120	5122	5121	5115	5116	5118	5117	5127	5128	5130	5129	5131	5132	5134	5133	5139	5140	5142	5141	5135	5136	5138	5137	5147	5148	5150	5149	5151	5152	5154	5153	5159	5160	5162	5161	5155	5156	5158	5157	5167	5168	5170	5169	5164	5166	5171	5172	5174	5173	5175	5176	5178	5177	5179	5180	5182	5181	5183	5184	5186	5185	1205	1206	1207	5187	5188	5190	5189	1209	1210	1211	1212	1213	1217	1218	1219	1220	1221	1222	1223	1224	1225	1226	1227	5191	5192	5194	5193	5195	5196	5198	5197	5199	5200	5202	5201	5203	5204	5206	5205	5207	5208	5210	5209	5211	5212	5214	5213	5215	5216	5218	5217	5219	5223	5224	5226	5225	5222	5221	5231	5232	5234	5233	5235	5236	5238	5237	5243	5244	5246	5245	5239	5240	5242	5241	5251	5252	5254	5253	5255	5256	5258	5257	5263	5264	5266	5265	5259	5260	5262	5261	5271	5272	5274	5273	5275	5276	5278	5277	5283	5284	5286	5285	5279	5280	5282	5281	5291	5292	5294	5293	5295	5296	5298	5297	5303	5304	5306	5305	5299	5300	5302	5301	5311	5312	5314	5313	5315	5316	5318	5317	5323	5324	5326	5325	5319	5320	5322	5321	5331	5332	5334	5333	5335	5336	5338	5337	5343	5344	5346	5345	5339	5340	5342	5341	5351	5352	5354	5353	5355	5356	5358	5357	5363	5364	5366	5365	5359	5360	5362	5361	5371	5372	5374	5373	5375	5376	5378	5377	5383	5384	5386	5385	5379	5380	5382	5381	5391	5392	5394	5393	5395	5396	5398	5397	5403	5404	5406	5405	5399	5400	5402	5401	5411	5412	5414	5413	5415	5416	5418	5417	5423	5424	5426	5425	5419	5420	5422	5421	5427	5428	5430	5429	5431	5432	5434	5433	5435	5436	5438	5437	1249	1250	1251	1252	5439	5440	5442	5441	1254	1255	1256	1257	1258	1262	1263	1264	1265	1266	1267	1268	1269	1270	1271	1272	5443	5444	5446	5445	5447	5448	5450	5449	5451	5452	5454	5453	5455	5456	5458	5457	5459	5460	5462	5461	5463	5464	5466	5465	5467	5468	5470	5469	5471	5472	5474	5473	5475	5479	5480	5482	5481	5483	5484	5486	5485	5477	5491	5492	5494	5493	5495	5496	5498	5497	5503	5504	5506	5505	5499	5500	5502	5501	5511	5512	5514	5513	5515	5516	5518	5517	5523	5524	5526	5525	5519	5520	5522	5521	5531	5532	5534	5533	5535	5536	5538	5537	5543	5544	5546	5545	5539	5540	5542	5541	5551	5552	5554	5553	5555	5556	5558	5557	5563	5564	5566	5565	5559	5560	5562	5561	5571	5572	5574	5573	5575	5576	5578	5577	5583	5584	5586	5585	5579	5580	5582	5581	5591	5592	5594	5593	5595	5596	5598	5597	5603	5604	5606	5605	5599	5600	5602	5601	5611	5612	5614	5613	5615	5616	5618	5617	5623	5624	5626	5625	5619	5620	5622	5621	5631	5632	5634	5633	5635	5636	5638	5637	5643	5644	5646	5645	5639	5640	5642	5641	5651	5652	5654	5653	5648	5650	5649	5655	5656	5658	5657	5659	5660	5662	5661	1293	1294	1295	1296	5663	5664	5666	5665	5667	5668	5670	5669	1299	1300	1301	1302	1303	1307	1308	1309	1310	1311	1312	1313	1314	1315	1316	1317	5671	5672	5674	5673	5675	5676	5678	5677	5679	5680	5682	5681	5683	5684	5686	5685	5687	5688	5690	5689	5691	5692	5694	5693	5695	5696	5698	5697	5699	5700	5702	5701	5703	5704	5706	5705	5711	5712	5714	5713	5715	5716	5718	5717	5719	5720	5722	5721	5709	5727	5728	5730	5729	5731	5732	5734	5733	5739	5740	5742	5741	5735	5736	5738	5737	5747	5748	5750	5749	5751	5752	5754	5753	5759	5760	5762	5761	5755	5756	5758	5757	5767	5768	5770	5769	5771	5772	5774	5773	5779	5780	5782	5781	5775	5776	5778	5777	5787	5788	5790	5789	5791	5792	5794	5793	5799	5800	5802	5801	5795	5796	5798	5797	5807	5808	5810	5809	5811	5812	5814	5813	5819	5820	5822	5821	5815	5816	5818	5817	5827	5828	5830	5829	5831	5832	5834	5833	5839	5840	5842	5841	5835	5836	5838	5837	5847	5848	5850	5849	5851	5852	5854	5853	5846	5845	5855	5856	5858	5857	5859	5860	5862	5861	5863	5864	5866	5865	1338	1339	1340	1341	5867	5868	5870	5869	1343	1344	1345	1346	1347	1348	1352	1353	1354	1355	1356	1357	1358	1359	1360	1361	1362	1363	5871	5872	5874	5873	5875	5876	5878	5877	5879	5880	5882	5881	5883	5884	5886	5885	5887	5888	5890	5889	5891	5892	5894	5893	5895	5896	5898	5897	5899	5900	5902	5901	5903	5904	5906	5905	5911	5912	5914	5913	5915	5916	5918	5917	5910	5909	5923	5924	5926	5925	5927	5928	5930	5929	5935	5936	5938	5937	5931	5932	5934	5933	5943	5944	5946	5945	5947	5948	5950	5949	5955	5956	5958	5957	5951	5952	5954	5953	5963	5964	5966	5965	5967	5968	5970	5969	5962	5961	5975	5976	5978	5977	5972	5974	5973	5979	5980	5982	5981	5983	5984	5986	5985	5987	5988	5990	5989	5991	5992	5994	5993	1382	1383	1384	1385	1386	5995	5996	5998	5997	1388	1389	1390	1391	1392	1393	1397	1398	1399	1400	1401	1402	1403	1404	1405	1406	1407	1408	1409	5999	6000	6002	6001	6003	6004	6006	6005	6007	6008	6010	6009	6011	6012	6014	6013	6015	6016	6018	6017	6019	6020	6022	6021	6023	6024	602